<simulation verbosity='high'>
   <prng>
      <state shape='(624)'>
       [ 1390460800, 284508533, 634968779, 3364710216, 633649718, 
         3194304850, 1177650026, 1957814139, 3328530158, 2729408945, 
         3870068220, 2372500118, 3705423915, 378119035, 3022695108, 
         936674618, 225798594, 2803475641, 407979954, 898541860, 
         1899327970, 244642508, 2832766104, 1574328214, 1519337700, 
         147129355, 1233962711, 2294227934, 4003241678, 11100766, 
         2766596620, 1234605591, 315931787, 1439973177, 3110190824, 
         3425418273, 1921359602, 2272180016, 1597778311, 1083806208, 
         198383854, 2479964628, 3050981428, 2113270939, 4239355255, 
         567562802, 2766866170, 793043802, 1974256486, 2741293290, 
         3783605525, 1300131351, 2119590688, 1703051827, 412845702, 
         4234087598, 2429509097, 287875832, 1419739080, 2730231188, 
         2707617123, 2278471094, 849636860, 1409273455, 1587132982, 
         2351647638, 1020464063, 976302776, 2650491906, 3587956438, 
         1712867888, 735836892, 550417348, 288192537, 1626509008, 
         2087188717, 1398017086, 568769252, 3717620300, 1490446735, 
         3350350983, 1702134810, 1751956872, 2913219751, 4007929265, 
         1065217407, 223405217, 3704891993, 1374580554, 2317801725, 
         3368024018, 57098327, 2747475207, 275468768, 4064052807, 
         252340198, 756471471, 4134120540, 2402980490, 1041342464, 
         425367524, 2686126324, 337486367, 1157339062, 2852132453, 
         616603844, 3012202071, 3450397814, 673850479, 4236807955, 
         2674874677, 2179925730, 3410113943, 3543355461, 3725413193, 
         2704156303, 2102944856, 2134091276, 1748500800, 2943419374, 
         1993182835, 3745963808, 2301078547, 2550854510, 3423092026, 
         1495793471, 882932119, 2688175579, 69022617, 4255760520, 
         951116826, 1732360505, 4004117937, 2874897991, 144811353, 
         2812379417, 1642715673, 4058905351, 2788705392, 2170894390, 
         473024842, 2054674636, 739610977, 2691511312, 2965573905, 
         2048774748, 485642582, 513959441, 3144390550, 3753606944, 
         3105888604, 491610341, 736518593, 130036258, 3971147017, 
         1220548134, 1083827291, 3461968513, 794891678, 971630734, 
         1196442017, 1697526687, 2426574636, 4271059254, 4141093850, 
         2782565295, 3524878163, 460341050, 2531925186, 2783193283, 
         567731068, 1241269754, 3370405572, 3381304561, 2444627905, 
         3414500679, 2171443123, 1729197556, 3750178489, 4219865049, 
         565103680, 2464872, 824452562, 827911616, 1695406814, 
         2286945931, 523818723, 3624490917, 1108427565, 2007705527, 
         1410975124, 3079797536, 2813276478, 2537146484, 2937471170, 
         4056646499, 2896240731, 805447997, 1918142779, 2385534477, 
         3882479011, 3223773245, 3405957778, 617679687, 3025428174, 
         3115088550, 3863352238, 166831855, 3390477614, 2449168101, 
         2897121820, 3651827475, 3240797642, 2198284279, 27626956, 
         4240672623, 838568044, 2866828239, 697572558, 1173244155, 
         2047050739, 643420063, 600347117, 2804879650, 2220293873, 
         396212081, 2045211362, 698080699, 1746441122, 3417829235, 
         1110208069, 1465490680, 537587918, 699324538, 196317624, 
         3728112418, 453215255, 1152098483, 3725583112, 215724562, 
         3389478658, 1703644268, 2779753119, 2221077590, 2250908610, 
         1187541141, 246286407, 1461167663, 2813950685, 548591493, 
         1813591772, 3013791856, 537952729, 220457331, 733887641, 
         3161613095, 1544154835, 186314870, 1077659635, 2693777220, 
         2147288311, 1117429974, 1356443240, 551794698, 4099034434, 
         1981045336, 241798887, 2237604758, 1006435448, 703463473, 
         4013343366, 4064109841, 2261657123, 230702792, 1066509744, 
         3562987974, 1561031749, 3855085511, 3772434314, 4186990015, 
         1906551103, 644104775, 3201931028, 935069941, 1776991824, 
         2724903513, 2909510145, 905762345, 1326801359, 2216063198, 
         2719204078, 2625981626, 1201403523, 745199971, 871419333, 
         3920716755, 2289968419, 1564827330, 2021724249, 3881215223, 
         1630662177, 559900691, 4122677579, 470950822, 1628840561, 
         1435458683, 2192185733, 2456064332, 3577040031, 3612667495, 
         1138635688, 628717886, 2315571000, 1761575675, 1130608548, 
         2627847587, 3703725542, 3668913234, 915031505, 3926953442, 
         3048874689, 2466316191, 2070369529, 628601657, 2987778521, 
         486017965, 351646323, 1222722804, 3550738832, 301343916, 
         1268487256, 4024314334, 4093519243, 1723217718, 3599900225, 
         1975413894, 1474779189, 3367959151, 2498486147, 1030833620, 
         1031705849, 364372597, 2872134238, 1805690734, 3219307600, 
         435028374, 1708312278, 328353888, 1172387379, 1108627882, 
         3973946165, 2276314902, 110150093, 918939518, 2596014234, 
         2974908284, 2720461186, 234369531, 3083086763, 1241894199, 
         3263575788, 2384488732, 2352776161, 2542276875, 2073907236, 
         429209472, 2779680089, 1923318196, 3924371496, 641012688, 
         896268887, 281689089, 3011165369, 2920140227, 1454522624, 
         2290518616, 323437042, 784479710, 2321068325, 2964580185, 
         3119121994, 3697074681, 2284148426, 1420267776, 2959507856, 
         1511713636, 267454330, 4178280484, 2550116843, 3633801024, 
         4016667233, 168934374, 51866879, 2171890146, 1134060818, 
         3840533375, 2361270119, 1150631928, 939029799, 2706107407, 
         2682567790, 2281195508, 3246892145, 1740632602, 3878131719, 
         3101766369, 3272000268, 3419003364, 1840797, 1273692496, 
         2315162487, 3132242975, 2663028197, 3789503448, 433637797, 
         2787598392, 3768176804, 1298789218, 3921999116, 2291107515, 
         2781202134, 4032618205, 421705716, 2599470441, 2067281339, 
         1214570714, 3936116351, 1921801142, 782548809, 2789584912, 
         3459666317, 219261044, 555516627, 1589041524, 825971483, 
         1505014642, 3489216906, 2913353020, 1860211193, 2481435382, 
         2280873297, 2562324809, 1874191174, 1369634782, 2680704121, 
         448412120, 44064962, 1277714919, 536379861, 2743406275, 
         2900392165, 1883480846, 1408170422, 3317761782, 2283267470, 
         1240427043, 1050231547, 1728902160, 3181024598, 1491381995, 
         4168373645, 3917593225, 4104265294, 871640301, 3201862179, 
         1478568975, 2472629358, 4072747642, 1317935569, 3013955105, 
         3561661890, 1391134879, 739831807, 2077174419, 3225238145, 
         3476587839, 889854662, 4274987271, 445052653, 157954907, 
         552905899, 3343738245, 3329330579, 69969055, 3077163451, 
         1233188580, 1690633681, 78421318, 2863184178, 150675091, 
         2452187357, 945290695, 1850487114, 920640310, 94786745, 
         1071106839, 94802522, 1218492076, 2743084232, 1030287072, 
         1019973544, 2749646850, 2395001955, 2295805761, 2384400467, 
         3435231547, 658631354, 4194701079, 2288646240, 1228904089, 
         3426761162, 2860629743, 2768951796, 761928095, 3947011381, 
         906930396, 683658591, 347714733, 2629979310, 219625449, 
         1755021132, 301811741, 4120600547, 2524405585, 2115721567, 
         2989670757, 3408616701, 2721366120, 3150824330, 1005214541, 
         1204515523, 411208540, 134791641, 696714040, 2578182734, 
         2055823937, 1362926701, 3471256500, 2830025256, 1541023944, 
         1280623070, 1324529464, 3371661621, 1448447191, 1992893771, 
         938666811, 3144123858, 3226070935, 1134324882, 2966026066, 
         3818436216, 3214483927, 615146175, 1079400570, 1394602271, 
         4216899868, 2515313540, 2382542885, 3582848233, 3065468699, 
         2789163245, 3693172570, 3545782678, 3762591908, 2093137123, 
         3621984527, 19997039, 954816774, 2328542636, 2333155110, 
         148839046, 1283107721, 3283961031, 2919844646, 3058245273, 
         2738718374, 3314513177, 3939753049, 1873557124, 1813355488, 
         1017905869, 2863409510, 2948276776, 276132059, 2652555827, 
         2113861813, 3002877913, 4175471493, 1905934117, 1598034127, 
         3893132449, 1635952282, 2509660116, 663500640, 2772670623, 
         4229094776, 1967555346, 1602413496, 1118825955, 186420665, 
         1911364893, 2832581369, 4284311135, 943936848, 115061015, 
         1946580987, 1484831302, 2120090632, 3750151873, 4023773857, 
         103043798, 3726909685, 2356389383, 409642510, 1590136199, 
         3481566490, 120030565, 197336027, 3710350929, 110320878, 
         2170932478, 1074496289, 2832194488, 3855499431 ]
      </state>
      <set_pos>308</set_pos>
   </prng>
   <output prefix='simulation'>
      <properties shape='(5)' stride='1000'> [ step, time{picosecond}, temperature{kelvin}, potential{kiloj/mol}, density{g/cm3} ] </properties>
      <trajectory filename='pos' stride='1000' cell_units='angstrom'>positions{angstrom}</trajectory>
      <checkpoint stride='10'>200001</checkpoint>
   </output>
   <step>2000000</step>
   <total_steps>2000000</total_steps>
   <ffsocket mode='unix' name='dmff'>
      <address>unix_dmff_534074</address>
   </ffsocket>
   <system>
      <forces>
         <force forcefield='dmff'>
         </force>
      </forces>
      <ensemble>
         <temperature>  9.44185952e-04</temperature>
         <pressure>  3.44386184e-09</pressure>
         <eens>  2.76427475e+02</eens>
         <hamiltonian_weights shape='(1)'> [   1.00000000e+00 ] </hamiltonian_weights>
         <time>  4.13413730e+07</time>
      </ensemble>
      <motion mode='dynamics'>
         <dynamics mode='npt'>
            <thermostat mode='langevin'>
               <ethermo> -2.75851920e+02</ethermo>
               <tau>  4.13413730e+02</tau>
            </thermostat>
            <barostat mode='isotropic'>
               <thermostat mode='langevin'>
                  <ethermo>  7.32755500e-02</ethermo>
                  <tau>  4.13413730e+03</tau>
               </thermostat>
               <tau>  4.13413730e+03</tau>
               <p shape='(1)'> [   2.40541094e+02 ] </p>
            </barostat>
            <timestep>  2.06706865e+01</timestep>
            <nmts shape='(1)'> [ 1 ] </nmts>
         </dynamics>
      </motion>
      <beads natoms='648' nbeads='1'>
         <q shape='(1, 1944)'>
          [   4.66093220e+01,   1.30497464e+01,   1.52921807e+01,   4.53051346e+01,   1.40894358e+01, 
              1.46055619e+01,   4.64198373e+01,   1.14418743e+01,   1.43660399e+01,   3.53934535e+01, 
              5.32591997e+01,   1.45386306e+01,   3.60681446e+01,   5.15725050e+01,   1.43470572e+01, 
              3.37136815e+01,   5.28987701e+01,   1.50910344e+01,   3.01977997e+01,   1.67998472e+01, 
             -7.32752206e+00,   2.92628364e+01,   1.52959922e+01,  -6.65740463e+00,   3.18535217e+01, 
              1.67447336e+01,  -6.51014970e+00,   1.55966728e+01,   2.29273709e+01,   8.27111202e+00, 
              1.54060265e+01,   2.22513325e+01,   9.99173213e+00,   1.42561676e+01,   2.39566919e+01, 
              7.61480597e+00,   1.18407454e+01,   7.60326609e+00,   3.49605261e+01,   1.05539675e+01, 
              6.27426464e+00,   3.46817117e+01,   1.11667936e+01,   8.60872117e+00,   3.64036390e+01, 
             -1.68519691e+01,   1.33068302e+01,   2.59518660e+01,  -1.70735711e+01,   1.45661311e+01, 
              2.45999484e+01,  -1.51907807e+01,   1.26245608e+01,   2.57614031e+01,   5.03832260e+01, 
              3.46240233e+00,   3.47800990e+01,   4.92196857e+01,   4.97931059e+00,   3.50745706e+01, 
              5.19019071e+01,   3.79933827e+00,   3.57234387e+01,  -3.74126974e-01,   1.25153399e+01, 
              1.89274415e+01,   3.37504465e-01,   1.34779579e+01,   2.03349621e+01,   6.77238080e-01, 
              1.26248211e+01,   1.73611852e+01,  -5.52010964e-01,   3.97763618e+01,   1.02208302e+01, 
             -1.78797340e+00,   4.05901214e+01,   1.13215992e+01,  -1.54528697e-01,   3.80611251e+01, 
              1.08616252e+01,  -2.65992621e+00,   4.43607480e+01,   1.27873956e+01,  -3.51181197e+00, 
              4.42266622e+01,   1.44354496e+01,  -4.00931472e+00,   4.44317086e+01,   1.15420971e+01, 
             -1.12802443e+01,   4.38478269e+01,   2.18470472e+01,  -1.10697649e+01,   4.45216229e+01, 
              2.01026915e+01,  -9.54415393e+00,   4.33507497e+01,   2.22675928e+01,  -1.00323460e+01, 
              1.11303411e+01,  -2.82896324e-01,  -1.18008806e+01,   1.08947305e+01,   3.45783587e-01, 
             -9.91779975e+00,   1.30547999e+01,  -2.55392039e-01,   1.91159170e+01,   5.61514474e+00, 
              1.59506688e+01,   1.99048637e+01,   5.28009136e+00,   1.76789853e+01,   1.80874797e+01, 
              4.13751857e+00,   1.53624779e+01,   1.08567244e+01,   2.64261772e+01,  -4.57769897e+00, 
              1.05918637e+01,   2.64042803e+01,  -6.37222041e+00,   1.26922894e+01,   2.64359223e+01, 
             -4.59937881e+00,   2.55447327e+01,   9.51102389e+00,   7.24076590e+00,   2.66823982e+01, 
              8.94088934e+00,   5.94154016e+00,   2.43185268e+01,   8.17103106e+00,   7.58618781e+00, 
              1.81225480e+01,   3.68378353e+01,   2.66359504e+01,   1.87451641e+01,   3.66089444e+01, 
              2.84088783e+01,   1.62768300e+01,   3.66753805e+01,   2.67258899e+01,   2.53759812e+01, 
             -1.13665991e+01,   3.69428743e+01,   2.62254567e+01,  -1.14216236e+01,   3.53574599e+01, 
              2.43503367e+01,  -9.82276983e+00,   3.68717837e+01,   3.46283573e+01,   1.32204939e+01, 
             -1.13331532e+01,   3.42764360e+01,   1.49315603e+01,  -1.09684864e+01,   3.57333301e+01, 
              1.26844119e+01,  -9.97902782e+00,   1.15592479e+01,   2.79233602e+01,   1.80420638e+01, 
              1.04197525e+01,   2.85857827e+01,   1.93483921e+01,   1.09065132e+01,   2.62916579e+01, 
              1.73710647e+01,   3.97146286e+01,   2.04055396e+01,   2.67342422e+01,   3.92734985e+01, 
              2.00988661e+01,   2.85028198e+01,   3.83629964e+01,   1.97037899e+01,   2.57208181e+01, 
              8.15131531e+00,   1.66591977e+01,   1.25810668e+01,   6.92301754e+00,   1.75343514e+01, 
              1.15153703e+01,   7.91003843e+00,   1.77797051e+01,   1.40532852e+01,   7.17086788e-01, 
              4.32478261e+00,  -7.11850597e+00,   5.81957678e-01,   5.70247562e+00,  -8.41096976e+00, 
              2.53523828e+00,   4.20709777e+00,  -7.02189181e+00,   2.19253510e+01,  -6.57450076e-01, 
             -1.20588653e+01,   2.04231046e+01,  -3.40375190e-01,  -1.09422282e+01,   2.20551921e+01, 
              8.06858141e-01,  -1.31717791e+01,  -3.84024613e-01,   2.12889071e-01,   1.34072213e+01, 
              9.31394376e-01,  -1.29081795e+00,   1.31911664e+01,  -1.96093034e+00,  -5.22244359e-01, 
              1.29028758e+01,   3.01739407e+01,   1.89563169e+01,   1.02848376e-01,   3.04412835e+01, 
              2.02973982e+01,  -1.15033434e+00,   2.85793252e+01,   1.82177388e+01,  -4.73274176e-01, 
              1.91236139e+00,   6.69400201e+00,   1.49114876e+01,   4.50630301e-01,   7.56950364e+00, 
              1.43639735e+01,   2.92630406e+00,   7.98292948e+00,   1.57159000e+01,   2.98186913e+01, 
              2.26148569e+00,   2.12870945e+01,   3.09432860e+01,   2.34656800e+00,   1.98660654e+01, 
              3.08137532e+01,   1.48511077e+00,   2.26281243e+01,  -8.16122676e+00,   4.82163741e+01, 
             -5.71199732e+00,  -9.28623585e+00,   4.89486237e+01,  -4.46242985e+00,  -9.33443753e+00, 
              4.76851026e+01,  -7.06609889e+00,   1.99023259e+01,   5.04993163e+00,   2.76891298e-01, 
              1.93754140e+01,   6.79038435e+00,   1.17551502e-01,   2.17305032e+01,   4.99940445e+00, 
              9.33020822e-01,   2.68496733e+01,   3.39009851e+01,   2.62856012e+01,   2.52547396e+01, 
              3.41495618e+01,   2.52810775e+01,   2.78034445e+01,   3.25592743e+01,   2.53382568e+01, 
              3.76372584e+01,   3.35543248e+01,   3.12718768e+01,   3.61321518e+01,   3.44498302e+01, 
              3.10935918e+01,   3.88555788e+01,   3.43542535e+01,   3.02339577e+01,   3.00080446e+01, 
              4.30966013e+01,   1.68658364e+01,   3.00742742e+01,   4.29595701e+01,   1.87744952e+01, 
              2.81635268e+01,   4.28850066e+01,   1.63704203e+01,   2.00480400e+01,   1.22134167e+01, 
              1.27005926e+01,   1.84675424e+01,   1.31663413e+01,   1.29233262e+01,   1.96353469e+01, 
              1.04188190e+01,   1.24383208e+01,  -4.81905039e+00,   3.36445292e+01,   3.06504480e+00, 
             -3.51500199e+00,   3.40729236e+01,   4.30748361e+00,  -5.02824953e+00,   3.18467792e+01, 
              3.15388635e+00,   3.02668628e+01,  -3.04527088e+00,   1.24727847e+01,   2.99097633e+01, 
             -3.35146548e+00,   1.43802410e+01,   2.87864131e+01,  -2.12371270e+00,   1.20126212e+01, 
              1.36868731e+01,   1.53147560e+01,   4.01879148e+01,   1.51159559e+01,   1.64233368e+01, 
              4.06575583e+01,   1.24108999e+01,   1.61877410e+01,   3.92572063e+01,   8.35350480e+00, 
              3.72927777e+00,   6.63692744e+00,   6.98752649e+00,   4.16645056e+00,   7.86267453e+00, 
              7.93101790e+00,   4.66191776e+00,   5.13660870e+00,   2.69132776e+01,  -9.24002254e+00, 
              1.64204477e+01,   2.71723645e+01,  -9.31808768e+00,   1.45594048e+01,   2.54537939e+01, 
             -1.03160829e+01,   1.69546270e+01,   5.70471389e+00,  -1.81638207e-01,   1.75985539e+01, 
              7.18282065e+00,   4.68865272e-01,   1.67712121e+01,   4.80075803e+00,  -1.30492916e+00, 
              1.64238422e+01,  -5.36208562e-01,   7.89761062e+00,  -3.19708745e+00,  -1.94222788e-01, 
              6.70313140e+00,  -4.55212320e+00,  -2.16011577e+00,   8.53387791e+00,  -3.76187225e+00, 
              3.16026281e+01,   2.41456243e+01,   3.60124122e+01,   3.28187692e+01,   2.40342823e+01, 
              3.76075364e+01,   3.21872799e+01,   2.57151950e+01,   3.52930733e+01,  -5.93408814e+00, 
              2.83056819e+01,   4.19646561e+00,  -7.82251023e+00,   2.84211954e+01,   3.98564151e+00, 
             -5.54333564e+00,   2.70330512e+01,   2.89582635e+00,   5.67783574e+00,   2.55270112e+01, 
             -7.56645010e+00,   6.23426006e+00,   2.62926693e+01,  -9.16146857e+00,   4.92701736e+00, 
              2.39850385e+01,  -8.01824031e+00,  -1.33566647e+00,   2.41339759e+01,   2.47078849e+01, 
             -1.32337552e+00,   2.41285648e+01,   2.65962739e+01,  -3.01535802e+00,   2.44758212e+01, 
              2.42284674e+01,   3.41149957e+01,   1.57342678e+01,  -3.62408748e+00,   3.33592533e+01, 
              1.50554368e+01,  -2.14618458e+00,   3.47569944e+01,   1.72076863e+01,  -2.78888066e+00, 
              3.35503131e+01,   6.68072140e+00,   2.19899303e+00,   3.31828648e+01,   4.95213041e+00, 
              2.84670969e+00,   3.40125480e+01,   6.78307283e+00,   3.86910090e-01,   9.47265733e+00, 
              2.77938915e+01,   4.47036194e+01,   8.52578484e+00,   2.63981892e+01,   4.54072311e+01, 
              1.00278269e+01,   2.88648475e+01,   4.61991697e+01,  -1.07881936e+01,   5.69828714e+00, 
              6.68247165e+01,  -1.02735364e+01,   7.46156274e+00,   6.68478894e+01,  -9.39323634e+00, 
              4.89919211e+00,   6.58390172e+01,   5.48890831e+00,   7.42167223e+00,   2.37701748e+01, 
              6.99870677e+00,   7.20747855e+00,   2.28305246e+01,   4.16230155e+00,   7.06190600e+00, 
              2.25409518e+01,   1.09222720e+01,   2.35765582e+01,   1.56026172e+01,   9.97018376e+00, 
              2.41259675e+01,   1.40892430e+01,   9.88452369e+00,   2.22046147e+01,   1.63755795e+01, 
              4.87538645e+01,   2.93914203e+01,   2.52078303e+01,   4.80895777e+01,   3.03758041e+01, 
              2.65806402e+01,   5.05784038e+01,   2.90841588e+01,   2.55958401e+01,   1.89699149e+01, 
              1.83616696e+01,  -8.02214111e-03,   1.91278688e+01,   1.73677623e+01,   1.58299913e+00, 
              2.07477465e+01,   1.89026812e+01,  -4.18819262e-02,   1.15615625e+01,  -1.91765786e+00, 
              2.81122282e+01,   1.26174192e+01,  -1.20439068e+00,   2.94888582e+01,   1.21933816e+01, 
             -1.44504011e+00,   2.64245325e+01,   1.98512266e+01,   3.51376930e+01,   6.22059513e+00, 
              1.85992940e+01,   3.38897097e+01,   6.82840720e+00,   1.99749288e+01,   3.49482013e+01, 
              4.41123888e+00,   4.21635512e+01,   2.43745315e+01,   1.17993224e+01,   4.15964880e+01, 
              2.26635427e+01,   1.15623993e+01,   4.05589694e+01,   2.52499857e+01,   1.23169996e+01, 
              2.43337751e+01,   3.27683310e+01,   1.70677049e+01,   2.45085797e+01,   3.46555065e+01, 
              1.76339684e+01,   2.31617818e+01,   3.20125502e+01,   1.83170546e+01,   2.07406577e+01, 
              2.49887739e+01,   7.32791467e+00,   1.91477769e+01,   2.41525141e+01,   7.92771518e+00, 
              2.05222410e+01,   2.51713950e+01,   5.63009748e+00,   3.67869269e+01,   1.29188109e+01, 
              1.37278782e+01,   3.56258702e+01,   1.16118800e+01,   1.32260847e+01,   3.84082832e+01, 
              1.26165414e+01,   1.29469121e+01,   2.94220089e+01,   7.29466351e+00,   2.25296969e+01, 
              2.96684395e+01,   5.30979069e+00,   2.25859782e+01,   3.08957116e+01,   8.11521434e+00, 
              2.34039421e+01,   2.43401434e-01,   2.10580379e+01,  -2.46321184e+00,  -8.82299693e-02, 
              2.12485295e+01,  -6.83793061e-01,   2.04998676e+00,   2.06732011e+01,  -2.28966063e+00, 
              2.70902802e+01,   2.26441534e+01,   6.94310914e+00,   2.84374012e+01,   2.13094099e+01, 
              6.34335956e+00,   2.67943574e+01,   2.38701002e+01,   5.61952821e+00,   4.01337450e+01, 
              1.90386289e+01,   3.24378364e+01,   4.19875495e+01,   1.94455734e+01,   3.20257181e+01, 
              4.02945769e+01,   1.82897139e+01,   3.41865414e+01,   3.11305838e+01,   3.89970705e+01, 
              5.73210841e+00,   3.25017365e+01,   3.89443334e+01,   6.88028359e+00,   2.97559816e+01, 
              3.80338742e+01,   6.41036741e+00,   4.32517100e+01,   2.94217660e+01,  -1.67213319e+00, 
              4.41447671e+01,   2.84969474e+01,  -2.88522701e+00,   4.14673050e+01,   2.96697700e+01, 
             -2.31413204e+00,   3.41493168e+01,   2.45452366e+01,   1.17556105e+01,   3.28671103e+01, 
              2.36869826e+01,   1.28143781e+01,   3.32928647e+01,   2.58878729e+01,   1.07748954e+01, 
              2.74405897e+01,  -1.62908418e-01,   8.66864652e+00,   2.65601847e+01,  -1.43645892e+00, 
              7.70194141e+00,   2.63503607e+01,   1.28117322e+00,   8.49918804e+00,   2.66834076e+00, 
             -8.61843459e+00,   1.40515828e+01,   1.75234712e+00,  -8.86361000e+00,   1.56505461e+01, 
              1.24278461e+00,  -9.47836156e+00,   1.29233868e+01,   1.28049309e+01,   2.31817992e+01, 
              3.80043978e+01,   1.46483119e+01,   2.33399494e+01,   3.79970296e+01,   1.19515492e+01, 
              2.42670149e+01,   3.67488402e+01,   2.44542794e+01,   3.95165223e+01,   3.76190038e+01, 
              2.48232013e+01,   3.77020445e+01,   3.72710529e+01,   2.58636196e+01,   4.05948190e+01, 
              3.69534110e+01,   1.50744458e+01,   2.08056971e+01,   3.25007575e+01,   1.57535297e+01, 
              1.98471418e+01,   3.38487030e+01,   1.50572462e+01,   1.96539278e+01,   3.11256593e+01, 
             -6.65587559e+00,   2.38217309e+01,   2.32664984e+01,  -7.97827833e+00,   2.47818214e+01, 
              2.23596429e+01,  -7.51521008e+00,   2.28480247e+01,   2.47353326e+01,   1.38358396e+01, 
              1.38380055e+01,   2.82669493e+01,   1.56349476e+01,   1.36644673e+01,   2.78451982e+01, 
              1.34850499e+01,   1.22618738e+01,   2.90067438e+01,   1.87397878e+01,   1.66981648e+01, 
              1.78306240e+01,   2.05911194e+01,   1.70997251e+01,   1.81448006e+01,   1.85046014e+01, 
              1.57526075e+01,   1.61948194e+01,   2.21741537e+00,   1.55068203e+01,   5.59334030e+00, 
              1.34169080e+00,   1.61257569e+01,   7.10598040e+00,   1.19895413e+00,   1.42461153e+01, 
              4.69169441e+00,   1.58587276e+01,   1.42091527e+01,  -2.08089034e+00,   1.54719552e+01, 
              1.47169997e+01,  -3.80678288e+00,   1.73282704e+01,   1.52923524e+01,  -1.57847779e+00, 
              2.95249864e+01,  -3.33607281e+00,   3.24045164e+01,   2.92508406e+01,  -4.80846185e+00, 
              3.12166592e+01,   3.09982600e+01,  -3.95755227e+00,   3.33842534e+01,   1.05881731e+00, 
              1.21464881e+01,   2.88815768e+01,   9.96011205e-01,   1.35462271e+01,   3.01081043e+01, 
              1.18632998e+00,   1.07077984e+01,   3.00410150e+01,   1.35968857e+01,  -2.26215136e-01, 
              4.06795373e+00,   1.39761910e+01,   9.36935152e-01,   2.70235381e+00,   1.39467321e+01, 
              7.23151371e-01,   5.55307553e+00,   1.29747385e+00,   5.44511552e+00,   2.00384857e+01, 
              2.41309729e-01,   3.86229065e+00,   2.00074294e+01,   1.15129584e+00,   5.66246510e+00, 
              1.81522144e+01,   2.40359280e+01,   1.66590367e+01,   2.49859962e+01,   2.57628807e+01, 
              1.60772522e+01,   2.43320209e+01,   2.44591479e+01,   1.82349312e+01,   2.58918431e+01, 
              6.83223644e+00,   1.57894990e+01,   3.59584278e+01,   8.35003018e+00,   1.50397697e+01, 
              3.50360563e+01,   6.95883485e+00,   1.53904279e+01,   3.77731573e+01,   3.94210031e+01, 
              1.14902075e+01,   3.39145312e+01,   4.03104364e+01,   1.30261064e+01,   3.46472524e+01, 
              4.05646300e+01,   1.06583809e+01,   3.26685853e+01,   9.59800071e+00,   4.06930193e+01, 
              2.01752152e+01,   1.03507295e+01,   3.91025260e+01,   2.10716859e+01,   1.09961053e+01, 
              4.19004950e+01,   2.03418096e+01,   4.08207632e+00,   2.21096166e+00,   6.81866365e-01, 
              4.12034919e+00,   3.83918349e+00,   1.48403887e+00,   2.58827653e+00,   2.17767275e+00, 
             -4.11800539e-01,   1.04008756e+01,   1.75171566e+01,   2.10501157e+01,   1.02703250e+01, 
              1.57240066e+01,   2.13863392e+01,   1.02689663e+01,   1.85756687e+01,   2.26162952e+01, 
              2.47555475e+01,   2.14710414e+00,   1.93256511e+01,   2.64401602e+01,   1.83506462e+00, 
              1.99438068e+01,   2.47876742e+01,   3.58412896e+00,   1.80492647e+01,   2.08852803e+01, 
              3.03938212e+01,   2.06413091e+01,   2.04965399e+01,   3.19993402e+01,   2.16044891e+01, 
              1.92068180e+01,   2.97250419e+01,   2.01621567e+01,   2.11034128e+01,   1.02227300e+00, 
              3.16619327e+01,   2.17370909e+01,   2.66379386e+00,   3.23040547e+01,   2.27878223e+01, 
              4.45023324e-02,   3.12188191e+01,   1.92861751e+01,   2.30087842e+01,   1.43071518e+01, 
              1.83257733e+01,   2.45326538e+01,   1.36895274e+01,   1.79185180e+01,   2.17955930e+01, 
              1.45960136e+01,   3.35743304e+01,   2.98806673e+01,  -6.46941044e-01,   3.52238582e+01, 
              3.03126284e+01,  -1.44020750e+00,   3.39469865e+01,   3.04594638e+01,   1.15803489e+00, 
              1.95825094e+01,   4.58151064e+01,   3.51668246e+01,   1.87709060e+01,   4.58138939e+01, 
              3.68639132e+01,   1.87998952e+01,   4.71844111e+01,   3.41855902e+01,   2.30153079e+01, 
              2.89825069e+01,   3.18743973e+01,   2.27591565e+01,   2.78305233e+01,   3.04170114e+01, 
              2.36242513e+01,   3.05775669e+01,   3.13467129e+01,   1.64461912e+00,   8.58534565e+00, 
              4.36798667e+01,   1.34700735e+00,   6.84263243e+00,   4.44894642e+01,  -1.59218989e-02, 
              8.96071190e+00,   4.28384248e+01,   2.71356663e+01,   2.60983418e+01,   1.10441900e+01, 
              2.60374434e+01,   2.74502294e+01,   1.02665422e+01,   2.70705835e+01,   2.45669240e+01, 
              9.91188804e+00,   4.55334510e+01,   1.29385788e+01,   2.40064665e+01,   4.41225686e+01, 
              1.24646627e+01,   2.49690240e+01,   4.68321797e+01,   1.28864320e+01,   2.52228243e+01, 
              2.72138208e+01,   2.08972575e+01,  -8.16209700e+00,   2.86420547e+01,   1.97165633e+01, 
             -7.94675457e+00,   2.61486590e+01,   2.04623121e+01,  -6.62927848e+00,   1.67622915e+01, 
              1.69478479e+01,   2.26445667e+01,   1.70970021e+01,   1.70781480e+01,   2.08317160e+01, 
              1.50538464e+01,   1.64823720e+01,   2.27570297e+01,   1.40249858e+01,   8.67277681e+00, 
              2.98762204e+01,   1.58810169e+01,   8.36423010e+00,   2.99092736e+01,   1.35947510e+01, 
              8.72247329e+00,   3.16144829e+01,   4.14481583e+01,   4.52678887e+00,  -6.50453970e+00, 
              4.22717206e+01,   2.78033553e+00,  -6.44850901e+00,   4.14129577e+01,   5.24338648e+00, 
             -8.14936057e+00,  -5.23591575e+00,   1.95694704e+01,   5.54379956e+01,  -5.87031359e+00, 
              1.80548980e+01,   5.61915443e+01,  -5.75355173e+00,   2.08663528e+01,   5.65299538e+01, 
              4.77109365e+00,   6.60979158e+00,   3.61068976e+00,   3.54709915e+00,   7.12735935e+00, 
              4.87411784e+00,   5.50815461e+00,   8.22432133e+00,   3.13613761e+00,   5.97254386e+00, 
              3.98882737e+01,   1.11454792e+01,   4.31913596e+00,   4.04539012e+01,   1.18117410e+01, 
              7.00065859e+00,   3.94002579e+01,   1.26095907e+01,   6.01367853e+00,  -1.01051784e+00, 
              2.77077096e+01,   6.26522141e+00,  -1.07270615e+00,   2.59175663e+01,   7.76910332e+00, 
             -1.48307807e+00,   2.83792091e+01,   1.07395737e+01,   1.89936530e+01,   2.87145539e+00, 
              1.18759064e+01,   2.05128307e+01,   2.83061360e+00,   9.88260211e+00,   1.87835662e+01, 
              1.24208605e+00,   9.98890814e+00,   3.87720325e+01,   1.52053299e+01,   1.00541583e+01, 
              3.99089203e+01,   1.66583249e+01,   1.15928805e+01,   3.86216672e+01,   1.43201291e+01, 
              1.15079522e+01,  -4.70771323e+00,   1.36346488e+01,   1.13137633e+01,  -4.80874233e+00, 